<LesHouchesEvents version="1.0">
<!--
File generated with PYTHIA 6.418
-->
<init>
    2212    2212  5.000000E+03  5.000000E+03     0     0     7     7     3     3
  2.952666E+04  2.952666E+04  1.000000E+00   406
  1.427032E+07  8.238975E+06  1.000000E+00   407
  2.401034E+07  9.075056E+06  1.000000E+00   408
</init>
<event>
     4   408  1.000000E+00  5.263089E+01  7.715637E-03  1.390601E-01
      21   -1    0    0  101  102  0.0000000000E+00  0.0000000000E+00  3.5644460799E+02  3.5644460799E+02  0.0000000000E+00 0. 9.
      21   -1    0    0  103  104  0.0000000000E+00  0.0000000000E+00 -2.3897774832E+01  2.3897774832E+01  0.0000000000E+00 0. 9.
      21    1    1    2  101  102  1.6127772737E+01 -5.0098962071E+01  3.2249345264E+02  3.2675990888E+02  0.0000000000E+00 0. 9.
      21    1    1    2  103  104 -1.6127772737E+01  5.0098962071E+01  1.0053380516E+01  5.3582473942E+01  0.0000000000E+00 0. 9.
</event>
<event>
     4   408  1.000000E+00  8.510583E+01  7.757517E-03  1.285752E-01
      21   -1    0    0  101  102  0.0000000000E+00  0.0000000000E+00  8.6284585351E+01  8.6284585351E+01  0.0000000000E+00 0. 9.
      21   -1    0    0  103  104  0.0000000000E+00  0.0000000000E+00 -2.0283923100E+02  2.0283923100E+02  0.0000000000E+00 0. 9.
      21    1    1    2  101  102  7.9335000190E+01  3.0805184379E+01  5.2400759926E+01  9.9944190829E+01  0.0000000000E+00 0. 9.
      21    1    1    2  103  104 -7.9335000190E+01 -3.0805184379E+01 -1.6895540557E+02  1.8917962552E+02  0.0000000000E+00 0. 9.
</event>
<event>
     4   408  1.000000E+00  5.666490E+01  7.722043E-03  1.373391E-01
      21   -1    0    0  101  102  0.0000000000E+00  0.0000000000E+00  8.5381951300E+01  8.5381951300E+01  0.0000000000E+00 0. 9.
      21   -1    0    0  103  104  0.0000000000E+00  0.0000000000E+00 -8.1400030266E+01  8.1400030266E+01  0.0000000000E+00 0. 9.
      21    1    1    2  101  102  2.1868081115E+00  5.6622684545E+01  6.3157254298E+01  8.4851336496E+01  0.0000000000E+00 0. 9.
      21    1    1    2  103  104 -2.1868081115E+00 -5.6622684545E+01 -5.9175333263E+01  8.1930645070E+01  0.0000000000E+00 0. 9.
</event>
<event>
     4   408  1.000000E+00  5.393106E+01  7.717753E-03  1.384867E-01
      21   -1    0    0  101  102  0.0000000000E+00  0.0000000000E+00  4.8094055272E+01  4.8094055272E+01  0.0000000000E+00 0. 9.
      21   -1    0    0  103  104  0.0000000000E+00  0.0000000000E+00 -8.1197909122E+01  8.1197909122E+01  0.0000000000E+00 0. 9.
      21    1    1    2  101  102 -1.4690734801E+01  5.1891633132E+01  1.6105272955E+01  5.6284448075E+01  0.0000000000E+00 0. 9.
      21    1    1    2  103  104  1.4690734801E+01 -5.1891633132E+01 -4.9209126806E+01  7.3007516319E+01  0.0000000000E+00 0. 9.
</event>
<event>
     4   407  1.000000E+00  6.699267E+01  7.736605E-03  1.335909E-01
      -1   -1    0    0    0  101  0.0000000000E+00  0.0000000000E+00  1.6219597232E+01  1.6219597232E+01  0.0000000000E+00 0. 9.
      21   -1    0    0  102  103  0.0000000000E+00  0.0000000000E+00 -3.9230207686E+02  3.9230207686E+02  0.0000000000E+00 0. 9.
      -1    1    1    2    0  101  5.9510626977E+01  3.0764659874E+01 -7.7163016697E+01  1.0218717662E+02  3.3000000000E-01 0. 9.
      21    1    1    2  102  103 -5.9510626977E+01 -3.0764659874E+01 -2.9891946293E+02  3.0633449746E+02  0.0000000000E+00 0. 9.
</event>
<event>
     4   407  1.000000E+00  5.226311E+01  7.715029E-03  1.392258E-01
       2   -1    0    0  101    0  0.0000000000E+00  0.0000000000E+00  1.0263330543E+03  1.0263330543E+03  0.0000000000E+00 0. 9.
      21   -1    0    0  102  103  0.0000000000E+00  0.0000000000E+00 -2.7379821922E+00  2.7379821922E+00  0.0000000000E+00 0. 9.
       2    1    1    2  101    0  5.2241798856E+01 -1.4746868856E+00  4.2572358210E+02  4.2891963991E+02  3.3000000000E-01 0. 9.
      21    1    1    2  102  103 -5.2241798856E+01  1.4746868856E+00  5.9787149004E+02  6.0015139661E+02  0.0000000000E+00 0. 9.
</event>
<event>
     4   408  1.000000E+00  5.036777E+01  7.711830E-03  1.401050E-01
      21   -1    0    0  101  102  0.0000000000E+00  0.0000000000E+00  5.2357880010E+01  5.2357880010E+01  0.0000000000E+00 0. 9.
      21   -1    0    0  103  104  0.0000000000E+00  0.0000000000E+00 -1.1257534606E+02  1.1257534606E+02  0.0000000000E+00 0. 9.
      21    1    1    2  101  102 -2.3845143245E+01  4.4365768541E+01  3.2129920032E+01  5.9743150536E+01  0.0000000000E+00 0. 9.
      21    1    1    2  103  104  2.3845143245E+01 -4.4365768541E+01 -9.2347386078E+01  1.0519007553E+02  0.0000000000E+00 0. 9.
</event>
<event>
     4   408  1.000000E+00  5.015237E+01  7.711459E-03  1.402077E-01
      21   -1    0    0  101  102  0.0000000000E+00  0.0000000000E+00  2.8480740444E+01  2.8480740444E+01  0.0000000000E+00 0. 9.
      21   -1    0    0  103  104  0.0000000000E+00  0.0000000000E+00 -3.0906906691E+02  3.0906906691E+02  0.0000000000E+00 0. 9.
      21    1    1    2  101  102 -1.9061326034E+01 -4.6388852871E+01  2.3437689219E+00  5.0207101824E+01  0.0000000000E+00 0. 9.
      21    1    1    2  103  104  1.9061326034E+01  4.6388852871E+01 -2.8293209539E+02  2.8734270553E+02  0.0000000000E+00 0. 9.
</event>
<event>
     4   407  1.000000E+00  5.003823E+01  7.711262E-03  1.402624E-01
      21   -1    0    0  101  102  0.0000000000E+00  0.0000000000E+00  5.2333019353E+00  5.2333019353E+00  0.0000000000E+00 0. 9.
       3   -1    0    0  103    0  0.0000000000E+00  0.0000000000E+00 -1.2796744577E+03  1.2796744577E+03  0.0000000000E+00 0. 9.
      21    1    1    2  101  102 -4.9836554008E+01 -4.4827694905E+00 -1.2885880960E+02  1.3823302843E+02  0.0000000000E+00 0. 9.
       3    1    1    2  103    0  4.9836554008E+01  4.4827694905E+00 -1.1455823462E+03  1.1466747312E+03  5.0000000000E-01 0. 9.
</event>
<event>
     4   408  1.000000E+00  5.326667E+01  7.716678E-03  1.387774E-01
      21   -1    0    0  101  102  0.0000000000E+00  0.0000000000E+00  6.0303237731E+01  6.0303237731E+01  0.0000000000E+00 0. 9.
      21   -1    0    0  103  104  0.0000000000E+00  0.0000000000E+00 -8.4832537729E+01  8.4832537729E+01  0.0000000000E+00 0. 9.
      21    1    1    2  101  102 -4.3695550284E+01  3.0463708621E+01  3.6163961479E+01  6.4383000609E+01  0.0000000000E+00 0. 9.
      21    1    1    2  103  104  4.3695550284E+01 -3.0463708621E+01 -6.0693261476E+01  8.0752774851E+01  0.0000000000E+00 0. 9.
</event>
</LesHouchesEvents>
